
Host: debian

Timers On : Fri Jan 24 15:58:12 2025
Timers Off: Fri Jan 24 15:58:13 2025

Wall Time:        0.44 seconds

                                                       Time (seconds)
Module                                       User      System        Wall        Calls

--------------------------------------------------------------------------------------

**************************************************************************************
